formula,compounds,cas,molar_weigth,tfp_k,Tb(K),Tc(K),Pc(bar),Vc(cm3/mol),zc,omega,tmin_K,tmax_K,cp_trange,cp_a0,cp_a1,cp_a2,cp_a3,cp_a4,cpig,cpliq,antoine_a,antoine_b,antoine_c,pvpmin_bar,tmin_k,pvpmax_bar,tmax_k
C12H10,"1,1-biphenyl",92-52-4,154.211,342.35,528.23,773,33.8,497,0.261,0.404,200.0,1000.0,200.0-1000.0,-0.843,0.061392,6.35E-05,-1.38E-07,6.17E-11,165.28,250.95,4.1887,1841.48,185.15,0.02,400.77,2,561.6